[ defaults ]
; nbfunc	comb-rule	gen-pairs	fudgeLJ	fudgeQQ
     1	     2	yes   	0.500000	0.833333

[ atomtypes ]
;type, bondingtype, atomic_number, mass, charge, ptype, sigma, epsilon
176_0      	     8	15.99943	0.0000000000000000	A    	0.2997159987248637	0.8764372596155737
176_1      	     8	15.99943	0.0000000000000000	A    	0.3039812205065809	0.8795023257036865
176_2      	     6	12.01078	0.0000000000000000	A    	0.337953176162662	0.4553891161106184
176_3      	     6	12.01078	0.0000000000000000	A    	0.3480646886945065	0.3635030558377792
176_4      	     1	1.007947	0.0000000000000000	A    	0.2644543413268124	0.06602135607582665
176_5      	     1	1.007947	0.0000000000000000	A    	0.2644543413268124	0.06602135607582665
176_6      	     1	1.007947	0.0000000000000000	A    	0.2644543413268124	0.06602135607582665
176_7      	     1	1.007947	0.0000000000000000	A    	0.0534539230883669	5.157198260534728e-05

[ moleculetype ]
176	         3

[ atoms ]
;index, atom type, resnum, resname, name, cgnr, charge, mass
     1 176_0        1 176      O          1     -0.610975000000     15.999430000000
     2 176_1        1 176      O          1     -0.551875000000     15.999430000000
     3 176_2        1 176      C          1     -0.149975000000     12.010780000000
     4 176_3        1 176      C          1      0.635225000000     12.010780000000
     5 176_4        1 176      H          1      0.077825000000      1.007947000000
     6 176_5        1 176      H          1      0.077825000000      1.007947000000
     7 176_6        1 176      H          1      0.077825000000      1.007947000000
     8 176_7        1 176      H          1      0.444125000000      1.007947000000

[ pairs ]
;ai    aj   funct
     2	     8	     1
     2	     7	     1
     1	     5	     1
     2	     5	     1
     1	     6	     1
     1	     7	     1
     3	     8	     1
     2	     6	     1

[ bonds ]
;ai    aj   funct r k
     1      4      1      0.136974518231  322804.352558720217 
     1      8      1      0.097167633126  454823.212172136817 
     2      4      1      0.122519838622  487602.327766196802 
     3      4      1      0.152343595833  275676.608549002965 
     3      5      1      0.109389949263  309655.084322414012 
     3      6      1      0.109389949263  309655.084322414012 
     3      7      1      0.109389949263  309655.084322414012 

[ angles ]
;ai    aj   ak   funct theta  k
     1      4      2      1     127.469141619100    1685.413543333009 
     1      4      3      1     126.806242045100     484.492885493347 
     2      4      3      1     126.806242045100     484.492885493347 
     4      1      8      1     110.353880618100     544.678275491328 
     4      3      5      1     116.547586263400     445.222086509286 
     4      3      6      1     116.547586263400     445.222086509286 
     4      3      7      1     116.547586263400     445.222086509286 
     5      3      6      1     115.603099953300     408.161690475075 
     5      3      7      1     115.603099953300     408.161690475075 
     6      3      7      1     115.603099953300     408.161690475075 

[ dihedrals ]
;ai    aj   ak   al   funct phi  k
     1     4     3     5     1      0.000000000000      0.111501038139                 3
     1     4     3     6     1      0.000000000000      0.111501038139                 3
     1     4     3     7     1      0.000000000000      0.111501038139                 3
     2     4     1     8     1    180.000000000000     11.600591494030                 2
     2     4     1     8     1      0.000000000000      0.405541938606                 1
     2     4     3     5     1      0.000000000000      1.900237470334                 1
     2     4     3     5     1      0.000000000000      0.623294863345                 2
     2     4     3     5     1    180.000000000000      0.123847541423                 3
     2     4     3     6     1      0.000000000000      1.900237470334                 1
     2     4     3     6     1      0.000000000000      0.623294863345                 2
     2     4     3     6     1    180.000000000000      0.123847541423                 3
     2     4     3     7     1      0.000000000000      1.900237470334                 1
     2     4     3     7     1      0.000000000000      0.623294863345                 2
     2     4     3     7     1    180.000000000000      0.123847541423                 3
     3     4     1     8     1    180.000000000000     11.244323820488                 2
     4     3     1     2     4    180.000000000000     14.644000000000                 2
     4     1     2     3     4    180.000000000000     14.644000000000                 2
     4     2     3     1     4    180.000000000000     14.644000000000                 2

[ settles ]
;i  funct   dOH  dHH


[ exclusions ]
;ai    aj


[ system ]
;name
FOO

[ molecules ]
;name	number
176	1

