Written by MDAnalysis
    8
    1UNL     O1    1   1.420   1.626   1.500
    1UNL     O2    2   1.353   1.409   1.500
    1UNL     C1    3   1.588   1.462   1.500
    1UNL     C2    4   1.442   1.493   1.500
    1UNL     H1    5   1.634   1.503   1.410
    1UNL     H2    6   1.635   1.504   1.590
    1UNL     H3    7   1.603   1.354   1.501
    1UNL     H4    8   1.325   1.648   1.500
   3.00000   3.00000   3.00000
