[ defaults ]
; nbfunc	comb-rule	gen-pairs	fudgeLJ	fudgeQQ
     1	     2	yes   	0.500000	0.833333

[ atomtypes ]
;type, bondingtype, atomic_number, mass, charge, ptype, sigma, epsilon
962_0      	     8	15.99943	0.0000000000000000	A    	0.31507	0.6363864000000001
962_1      	     1	1.007947	0.0000000000000000	A    	0.123635	0.063639
962_2      	     1	1.007947	0.0000000000000000	A    	0.123635	0.063639

[ moleculetype ]
962	         3

[ atoms ]
;index, atom type, resnum, resname, name, cgnr, charge, mass
     1 962_0        1 962      O          1     -0.834000000000     15.999430000000
     2 962_1        1 962      H          1      0.417000000000      1.007947000000
     3 962_2        1 962      H          1      0.417000000000      1.007947000000

[ pairs ]
;ai    aj   funct

[ bonds ]
;ai    aj   funct r k

[ angles ]
;ai    aj   ak   funct theta  k

[ dihedrals ]
;ai    aj   ak   al   funct phi  k

[ settles ]
;i  funct   dOH  dHH
     1	     1	      0.095720000000	      0.151390065452


[ exclusions ]
;ai    aj
     1     2     3
     2     1     3
     3     1     2


[ system ]
;name
FOO

[ molecules ]
;name	number
962	1

